/*--------------------------------*- C++ -*----------------------------------*\
  =========                 |
  \\      /  F ield         | OpenFOAM: The Open Source CFD Toolbox
   \\    /   O peration     | Website:  https://openfoam.org
    \\  /    A nd           | Version:  8
     \\/     M anipulation  |
\*---------------------------------------------------------------------------*/
FoamFile
{
    version     2.0;
    format      ascii;
    class       volScalarField;
    location    "0";
    object      yPlus;
}
// * * * * * * * * * * * * * * * * * * * * * * * * * * * * * * * * * * * * * //

dimensions      [0 0 0 0 0 0 0];

internalField   uniform 0;

boundaryField
{
    back
    {
        type            empty;
    }
    front
    {
        type            empty;
    }
    freeStream
    {
        type            calculated;
        value           uniform 0;
    }
    inlet
    {
        type            calculated;
        value           uniform 0;
    }
    outlet
    {
        type            calculated;
        value           uniform 0;
    }
    object
    {
        type            calculated;
        value           nonuniform List<scalar> 
641
(
87.687772
67.9966882
5.05753064
5.057527
5.0575284
5.05752739
5.05752848
5.05752974
5.05752976
5.05752783
5.05752601
5.05752602
5.05752616
5.05752787
5.05752947
5.05752451
5.05543848
5.05752745
5.05752565
5.05752725
5.05752861
5.05752747
5.05752792
5.05752779
5.05752811
5.05752603
5.05752833
5.05752521
5.05752725
5.05752452
5.05753085
5.05752366
5.05752935
5.05753419
5.0575323
5.05752834
5.05752679
5.0575257
5.05752893
5.05752424
5.05752912
5.05752644
5.05752763
10.1895842
5.02901954
5.05752918
5.05753348
5.05752422
5.05752966
5.057528
5.05752477
5.05752726
5.05752391
5.05752569
5.0575233
28.9892797
5.05752727
5.05752991
5.05752858
5.05731398
5.05752705
5.05752105
5.05752973
5.05752669
5.05751875
5.05752673
5.05752598
5.05752548
5.05752701
5.05752373
5.05752619
5.05752737
5.05752193
5.05752617
15.0888488
5.05755154
5.05755202
5.05751996
5.05751342
5.05752548
5.05752404
5.05064516
5.0575242
5.05752826
5.05752804
5.05752562
5.05753372
5.05753109
5.05753108
5.05752828
5.05752877
5.05752961
5.05752521
5.05752735
5.05752792
5.0575252
5.05752573
5.05752674
28.9313844
26.1835908
5.05742268
5.05752825
5.05752683
5.05752747
5.05752464
5.05752517
5.05752422
5.05753678
5.05753306
5.05753655
5.05754131
5.05752891
5.05754348
5.05753138
5.05752939
5.05752455
5.05752617
5.05752739
5.0575263
5.05752502
5.05752426
5.05752487
5.05752954
5.05753073
5.05752818
5.0575276
5.05752391
5.05752441
5.05752361
25.9743541
17.3437029
15.1237328
17.4386256
5.05752288
5.05755935
5.05754132
5.05753292
5.05756675
5.05754895
5.05753392
5.05752616
5.05753182
5.05753362
5.05753214
5.05753162
5.05753217
5.05752912
5.05753176
5.05753016
5.0575316
5.0575293
5.05752703
5.05752915
5.0575259
5.05753121
5.05752835
5.05752981
5.0575266
5.0575284
5.05752695
5.05752701
5.05752566
5.05752602
5.05752686
5.05752432
5.05756935
5.05752486
5.05752594
5.05752779
5.05752769
5.05752597
5.05752618
5.05752785
5.05752535
5.05752647
5.05752724
5.05752666
5.05752706
5.05752691
5.0575258
5.05752673
5.05753109
5.05752277
5.05651864
5.05752999
5.05753171
5.05753816
5.05753701
5.05753046
5.05752745
5.05752795
5.05752849
5.05753011
5.05752632
5.05752696
5.05752688
5.05752777
5.05752834
5.05752579
5.05752737
5.05752852
5.0575237
5.05752703
29.5210713
5.05752689
5.05752126
5.05752873
5.05752681
5.05753038
5.05753599
5.05752616
5.05753801
5.05754435
5.05752621
5.05754325
5.05753207
5.05752841
5.05752881
5.05752819
5.0575267
5.05752783
5.05752501
5.05752755
5.05752482
5.05752925
5.05752954
5.05752801
5.05752888
5.05753057
5.05752592
5.05752643
11.5536058
26.1170402
22.8447539
5.05752762
5.05752254
5.05752408
5.03083046
5.02896649
5.05752721
5.05752641
5.05752851
5.05753321
5.05752515
5.05752746
5.05753026
5.05752791
5.05753024
5.05752604
5.05752661
5.05752713
5.0575249
5.05752347
5.05752726
5.05752709
5.05752483
5.0575253
5.05752206
5.05752963
5.05753022
5.05753443
5.05753493
5.05749451
5.05756962
5.05754413
5.05752737
5.05753276
5.05752956
5.05752593
5.05752473
5.05752695
5.05752872
5.0575244
5.0575265
5.05752779
5.05752908
5.05752793
5.05752389
5.0575268
5.05752683
5.05752847
5.05752793
5.05752516
5.05755237
5.05750928
5.05755007
5.05754395
5.05753449
5.05753369
5.04581172
5.05752226
5.0431533
5.04774752
5.05752777
5.05752924
5.05753794
5.05753155
5.05752638
5.05752595
5.0575275
5.05752995
5.05752612
5.05752416
5.05752983
5.05752661
5.0575305
5.05752687
5.05752608
5.05752665
5.05753206
5.05752754
5.057525
5.0575267
5.05752412
5.05752832
31.0494391
30.8945074
5.05719766
5.05710389
5.05752931
5.05752843
5.05753023
5.05752996
5.05752426
5.05752439
5.05752624
5.05753631
5.05753158
5.05752812
5.05752576
5.057526
5.05752649
5.05752778
5.05745887
5.05754004
5.05753323
5.05753683
5.05753588
5.05753718
5.05752924
5.05753376
5.05752876
5.05752515
5.0575292
5.05752384
5.05752869
5.05752891
5.05752741
5.0575254
5.05752428
5.0575259
5.0575255
5.05752804
5.05752614
5.05752877
5.0575259
5.05752834
5.05752774
5.0575284
5.05752647
5.05752772
5.05752532
5.05752455
5.0575297
5.05753102
5.05752824
22.8848335
19.9672927
13.1837015
19.9557303
5.05752442
5.0575257
5.05752749
5.05754186
5.05749676
5.05750513
5.05755832
5.05750099
5.05753306
5.05752886
5.05752906
5.05752661
5.05753361
5.05753628
5.05753379
5.0575287
5.05752544
5.05058986
5.05181833
5.05752687
5.05753005
5.05753112
5.05752931
5.05752678
5.05752938
5.05753168
5.05603653
5.05646661
5.05752468
5.05753472
5.05755592
5.05753546
9.04377402
5.05751655
5.05752895
5.05752457
5.05752493
5.0575275
5.05752464
5.05752417
5.05757381
5.05752579
5.05752434
5.0575345
5.05753011
5.05752723
5.05753381
5.0575329
5.05753645
5.05747882
5.05753969
5.05752575
5.05752859
5.05753142
5.05753166
10.1897501
9.04210956
6.51689822
5.0575288
5.05754316
5.05752463
5.05752627
5.05752724
5.05752721
5.05752954
5.05753922
5.05752233
5.05752173
5.05753333
5.05753546
5.05753332
26.4067399
24.2990148
5.05752456
5.05752474
5.05752708
5.05752737
5.0575293
5.05752331
5.05752568
5.0575283
5.05752958
5.05715637
5.05755298
5.05753089
5.05753601
5.05754296
5.0575221
5.05753218
5.05752955
5.05753391
5.05754795
5.05753978
5.05753734
5.05752737
5.05754399
5.05754737
5.05753029
5.05752822
5.05752153
5.05752794
5.05752322
5.05752779
5.05751692
5.8869943
6.51691204
5.88703429
5.05755073
5.05751542
5.05753357
5.0575421
5.05752707
5.05752616
5.05752917
5.05752631
5.05752539
5.04778046
5.04715129
5.05752512
5.05752296
5.05752247
5.05752593
5.05752356
5.05753177
5.05755416
5.05752396
5.05752338
5.05753256
5.05753012
5.0521742
5.05753081
5.05752989
5.05753939
5.05752615
5.05753075
5.05752795
5.05703765
5.0538612
5.05715387
5.05752775
5.05730797
5.05756621
5.05730036
5.05752894
5.05753041
5.05753105
5.05753771
5.05753093
5.05752539
5.05752237
5.05753444
5.05753024
8.07024479
5.05752697
5.05750044
5.05734958
5.05755862
5.05752893
5.0575313
5.05752962
5.0575344
5.05753483
5.05752654
5.05752739
5.04402409
5.03221139
5.05752506
5.03545878
5.05752398
5.05752628
5.05752752
5.0575251
5.05741547
5.05748711
5.05752368
5.05752278
5.05752339
5.05752673
5.05753617
5.05753836
5.05754178
5.0575382
5.05752898
5.05752785
5.05752751
5.0575308
5.05752947
11.5540864
13.1868467
8.06976374
7.23728366
5.05754502
5.05752689
5.05752698
5.03921168
5.05752411
5.05752571
5.05752754
5.05752888
5.05753503
5.05752446
5.05753236
5.05752992
5.05752908
5.0575268
30.3696241
28.7594452
5.05752806
5.05752556
5.05752459
5.0575271
5.05752405
5.05752502
5.05752837
5.05752402
5.05752624
5.05752667
5.05752279
5.05752988
5.05690992
5.05756392
5.05753777
5.05752998
5.05753492
5.05754158
5.0575315
5.0575349
5.05752794
5.05752894
5.05749192
5.05753293
5.05752875
5.05754169
5.05753119
5.05753391
5.05752298
5.05753588
5.05752823
5.05753363
5.05753334
5.05753506
5.05753146
5.05752901
5.05752722
5.0575248
5.05752552
5.0575258
5.05752673
5.05753171
5.05753327
5.05752762
5.05749777
5.33111702
7.23739029
5.05752261
5.05752025
5.33112991
5.05754381
5.0575278
5.05753753
5.05752752
5.05752785
5.05752677
5.05752955
5.0575233
5.05752725
5.05752716
5.05752262
5.05752489
5.05752752
5.05753028
)
;
    }
}


// ************************************************************************* //
